define = -DPOSRES
; --- shared MD settings (AMBER99SB-ILDN + SPC/E, 300 K) ---
integrator              = md
dt                      = 0.002
nstenergy               = 5000
nstlog                  = 5000
nstxout                 = 0
nstvout                 = 0
nstfout                 = 0
continuation            = yes
constraint_algorithm    = lincs
constraints             = h-bonds
lincs_iter              = 1
lincs_order             = 4
cutoff-scheme           = Verlet
nstlist                 = 20
rcoulomb                = 1.0
rvdw                    = 1.0
DispCorr                = EnerPres
coulombtype             = PME
pme_order               = 4
fourierspacing          = 0.12
tcoupl                  = V-rescale
tc-grps                 = Protein Non-Protein
tau_t                   = 0.1     0.1
ref_t                   = 300     300
pbc                     = xyz
nsteps                  = 1500000
nstxout-compressed      = 2500
compressed-x-grps       = System
pcoupl                  = C-rescale
pcoupltype              = isotropic
tau_p                   = 2.0
ref_p                   = 1.0
compressibility         = 4.5e-5
refcoord_scaling        = com
gen_vel                 = no
